;;
;; Generated by CHARMM-GUI FF-Converter
;;
;; Correspondance:
;; jul316@lehigh.edu or wonpil@lehigh.edu
;;
;; GROMACS topology file for LIG
;;


[ moleculetype ]
; name	nrexcl
LIG	     3

[ atoms ]
; nr	type	resnr	residu	atom	cgnr	charge	mass
     1      CG331      1      LIG     C1      1    -0.273000    12.0110   ; qtot -0.273
     2      CG311      1      LIG     C2      2     0.154000    12.0110   ; qtot -0.119
     3      CG331      1      LIG     C3      3    -0.273000    12.0110   ; qtot -0.392
     4      OG302      1      LIG     O1      4    -0.481000    15.9994   ; qtot -0.873
     5      CG2O2      1      LIG     C4      5     0.623000    12.0110   ; qtot -0.250
     6      OG2D1      1      LIG     O2      6    -0.424000    15.9994   ; qtot -0.674
     7     CG2DC1      1      LIG     C5      7     0.137000    12.0110   ; qtot -0.537
     8     CG2DC3      1      LIG     C6      8    -0.410000    12.0110   ; qtot -0.947
     9      CG331      1      LIG     C7      9    -0.373000    12.0110   ; qtot -1.320
    10       HGA3      1      LIG     H1     10     0.090000     1.0080   ; qtot -1.230
    11       HGA3      1      LIG     H2     11     0.090000     1.0080   ; qtot -1.140
    12       HGA3      1      LIG     H3     12     0.090000     1.0080   ; qtot -1.050
    13       HGA1      1      LIG     H4     13     0.090000     1.0080   ; qtot -0.960
    14       HGA3      1      LIG     H5     14     0.090000     1.0080   ; qtot -0.870
    15       HGA3      1      LIG     H6     15     0.090000     1.0080   ; qtot -0.780
    16       HGA3      1      LIG     H7     16     0.090000     1.0080   ; qtot -0.690
    17       HGA5      1      LIG     H8     17     0.210000     1.0080   ; qtot -0.480
    18       HGA5      1      LIG     H9     18     0.210000     1.0080   ; qtot -0.270
    19       HGA3      1      LIG    H10     19     0.090000     1.0080   ; qtot -0.180
    20       HGA3      1      LIG    H11     20     0.090000     1.0080   ; qtot -0.090
    21       HGA3      1      LIG    H12     21     0.090000     1.0080   ; qtot  0.000

[ bonds ]
; ai	aj	funct	b0	Kb
    1     2     1
    1    10     1
    1    11     1
    1    12     1
    2     3     1
    2     4     1
    2    13     1
    3    14     1
    3    15     1
    3    16     1
    4     5     1
    5     6     1
    5     7     1
    7     8     1
    7     9     1
    8    17     1
    8    18     1
    9    19     1
    9    20     1
    9    21     1

[ pairs ]
; ai	aj	funct	c6	c12 or
; ai	aj	funct	fudgeQQ	q1	q2	c6	c12
    1     5     1
    1    14     1
    1    15     1
    1    16     1
    2     6     1
    2     7     1
    3     5     1
    3    10     1
    3    11     1
    3    12     1
    4     8     1
    4     9     1
    4    10     1
    4    11     1
    4    12     1
    4    14     1
    4    15     1
    4    16     1
    5    13     1
    5    17     1
    5    18     1
    5    19     1
    5    20     1
    5    21     1
    6     8     1
    6     9     1
    8    19     1
    8    20     1
    8    21     1
    9    17     1
    9    18     1
   10    13     1
   11    13     1
   12    13     1
   13    14     1
   13    15     1
   13    16     1

[ angles ] 
; ai	aj	ak	funct	th0	cth	S0	Kub
    2     1    10     5
    2     1    11     5
    2     1    12     5
   10     1    11     5
   10     1    12     5
   11     1    12     5
    1     2     3     5
    1     2     4     5
    1     2    13     5
    3     2     4     5
    3     2    13     5
    4     2    13     5
    2     3    14     5
    2     3    15     5
    2     3    16     5
   14     3    15     5
   14     3    16     5
   15     3    16     5
    2     4     5     5
    4     5     6     5
    4     5     7     5
    6     5     7     5
    5     7     8     5
    5     7     9     5
    8     7     9     5
    7     8    17     5
    7     8    18     5
   17     8    18     5
    7     9    19     5
    7     9    20     5
    7     9    21     5
   19     9    20     5
   19     9    21     5
   20     9    21     5

[ dihedrals ]
; ai	aj	ak	al	funct	phi0	cp	mult
   10     1     2    13     9
   11     1     2    13     9
   12     1     2    13     9
    3     2     1    10     9
    3     2     1    11     9
    3     2     1    12     9
    4     2     1    10     9
    4     2     1    11     9
    4     2     1    12     9
    1     2     3    14     9
    1     2     3    15     9
    1     2     3    16     9
    4     2     3    14     9
    4     2     3    15     9
    4     2     3    16     9
   13     2     3    14     9
   13     2     3    15     9
   13     2     3    16     9
    1     2     4     5     9
    3     2     4     5     9
    5     4     2    13     9
    2     4     5     6     9
    2     4     5     7     9
    4     5     7     8     9
    4     5     7     9     9
    6     5     7     8     9
    6     5     7     9     9
    5     7     8    17     9
    5     7     8    18     9
    9     7     8    17     9
    9     7     8    18     9
    5     7     9    19     9
    5     7     9    20     9
    5     7     9    21     9
    8     7     9    19     9
    8     7     9    20     9
    8     7     9    21     9

[ dihedrals ]
; ai	aj	ak	al	funct	q0	cq
    5     7     6     4     2

#ifdef POSRES
[ position_restraints ]
    1     1    POSRES_FC_BB    POSRES_FC_BB    POSRES_FC_BB   
    2     1    POSRES_FC_BB    POSRES_FC_BB    POSRES_FC_BB   
    3     1    POSRES_FC_BB    POSRES_FC_BB    POSRES_FC_BB   
    4     1    POSRES_FC_BB    POSRES_FC_BB    POSRES_FC_BB   
    5     1    POSRES_FC_BB    POSRES_FC_BB    POSRES_FC_BB   
    6     1    POSRES_FC_BB    POSRES_FC_BB    POSRES_FC_BB   
    7     1    POSRES_FC_BB    POSRES_FC_BB    POSRES_FC_BB   
    8     1    POSRES_FC_BB    POSRES_FC_BB    POSRES_FC_BB   
    9     1    POSRES_FC_BB    POSRES_FC_BB    POSRES_FC_BB   
#endif
